,task_id,formula,formation_energy_per_atom,e_above_hull,band_gap,has_bandstructure
101914,mp-684580,AgI,-0.2835320283333331,0.0010047100000001,1.3146,False
102235,mp-28495,ZrBr2,-1.2400776033333338,0.0332221083333337,0.0,True
102282,mp-568273,LiI,-1.1994872974999995,0.0362202124999999,4.224500000000001,True
102482,mp-974474,ReBr,1.3064591762500006,1.507749351607143,0.0,True
102781,mp-22854,Pr2I5,-1.4145048214285711,0.0,0.1295000000000001,True
102783,mp-23192,HgI2,-0.3154334866666666,0.000289859375,1.3282999999999998,True
102784,mp-23223,TiI3,-0.8011616216666666,0.0039867718749997,0.0,True
102868,mp-680094,CdI2,-0.5904315268181818,0.0017054717373736,2.3506,True
102869,mp-680205,PbI2,-0.6722340544444446,0.0031216088888887,2.3541,True
103373,mp-570301,AgBr,-0.3317342058333334,0.0413521475,0.7132000000000001,True
103389,mp-669496,PtI4,-0.1325358944999997,0.0,0.6923999999999997,True
103823,mp-27637,NiBr2,-0.3627778999999999,0.0,0.0,True
103875,mp-570679,TaI5,-0.4582169089583334,0.0,1.1727,True
104092,mp-1196036,WI3,-0.1078483468749998,0.0482514431250002,1.0703,False
104268,mp-30031,CaI2,-1.6457300683333334,0.0,3.9035,True
105368,mp-685068,YbBr3,-1.3483221999999997,0.2339423187500005,0.0,True
105624,mp-1185590,Mg149I,-0.0175857402666666,0.0,0.0024999999999999,False
105675,mp-1197830,CI,0.9507070043750004,0.9507070043750004,3.4057,False
105824,mp-27934,CdBr2,-0.8903400116666665,0.0,2.9384,True
105857,mp-567483,CdI2,-0.5910184427777776,0.0011185557777779,2.3829,True
106026,mp-1064427,GdBr,-1.2220372874999992,0.0577732133333359,0.0,False
106146,mp-1207336,PbI6,0.4048811428571431,0.6943192842857149,0.0972999999999997,False
106328,mp-23288,AlBr3,-1.121820686875,0.0,4.0967,True
106339,mp-27747,PdI2,-0.2511944116666669,0.0,0.9081,True
106382,mp-568289,CdI2,-0.5903013461111111,0.0018356524444442,2.3959,True
107289,mp-571442,YI3,-1.44025290125,0.0,3.0409,True
107806,mp-540672,Ti7Br16,-1.1517253615942031,0.0,0.0,True
107831,mp-571654,CdI2,-0.5914954086111109,0.0006415899444442,2.3876,True
107974,mp-977375,HoBr3,-1.84647132125,0.0,2.8413,True
107976,mp-978272,Mg3Br,-0.1187892924999998,0.4523277395370371,0.0,False
108650,mp-1208711,SmBr2,-1.6696240908333333,0.0207345308333328,0.0,False
108893,mp-680055,CdI2,-0.5904858368181818,0.0016511617373737,2.3639,True
109125,mp-1206888,DyI6,-0.095746727142857,0.6892699107142861,0.0377999999999998,False
109276,mp-23221,PrBr3,-1.914331335,0.0,3.4284,True
109383,mp-636675,Ga2I3,-0.4319675844999999,0.0,2.2225,False
109386,mp-640058,PbI2,-0.6730530699999997,0.0023025933333333,2.4062,True
109857,mp-672351,Sm6Br13,-1.5790234136842105,0.1558183296052631,0.0,True
110033,mp-1078181,SiBr3,-0.7817461324999999,0.0038544296875002,3.9433,False
110231,mp-23177,HgBr,-0.4273906074999999,0.0,2.286,True
110290,mp-567442,CdI2,-0.5909379044444442,0.0011990941111112,2.3718,True
110294,mp-569510,CdI2,-0.59113705625,0.0009999423055555,2.3729,True
111319,mp-28880,W3Br7,-0.4542203433750004,0.037895821416666,0.0,False
111339,mp-505366,AuBr,-0.1367597149999997,0.0,1.6887000000000003,True
111364,mp-567471,HgI2,-0.3145670274999999,0.0011563185416667,1.3495,True
111367,mp-568927,AgI,-0.1806643408333332,0.1038723975,0.9072,True
111369,mp-570506,ZrI2,-0.8951781925000001,0.0,0.2938999999999998,True
111371,mp-571559,CdI2,-0.591135254,0.0010017445555554,2.3719,True
111372,mp-571579,CdI2,-0.5920399326666667,9.70658888888032e-05,2.4388,True
111471,mp-865534,YBr2,-1.55005889,0.1589733111111115,0.0,True
111638,mp-1207230,MgBr6,0.0380424028571429,0.6857103042857138,0.1291999999999999,False
111796,mp-22870,InBr,-0.6746365891666666,0.0,1.3112,True
111830,mp-28988,In7Br9,-0.7158392592708331,0.009373499921875,1.5437999999999998,True
111898,mp-570559,CdI2,-0.591037589,0.0010994095555556,2.385,True
112335,mp-571222,CsBr,-1.789854908103448,0.0,4.2579,True
112376,mp-680153,CdI2,-0.590665439126984,0.0014715594285714,2.3594,True
112785,mp-541013,TiI4,-0.7302077473333337,0.0,1.0878,True
112835,mp-680163,CdI2,-0.5907668751333336,0.001370123422222,2.3317,False
112962,mp-861867,AcI3,-1.5182595216666668,0.0,2.5888,True
113067,mp-1095094,SnI3,-0.2770031037500002,0.1429070798437495,0.0,False
113437,mp-861891,SeBr2,-0.0368760528645832,0.0906100365885414,0.8221,True
113616,mp-1185925,Mn3I,0.8092296025000003,0.9799440662500007,0.0,False
113623,mp-1186696,Pr3Br,-0.1455665937500003,0.5032983594999996,0.0,False
113787,mp-23268,NaI,-1.26469161225,0.0,3.5255,True
113801,mp-27529,PI3,-0.0584214030357146,0.0,2.2779,True
113859,mp-567789,InI3,-0.5003733214583335,0.0,2.2698,True
113861,mp-568690,CdBr2,-0.8893655983333334,0.0009744133333331,2.8772,True
113867,mp-571535,CdI2,-0.5911023645833332,0.0010346339722224,2.3788,True
113884,mp-685043,BBr,-0.3451380813888889,0.0086569097222222,1.2319,True
113964,mp-862868,PbBr2,-0.9353369366666664,0.0,2.5844,True
114381,mp-574086,SiBr4,-0.8379111484999996,6.278450000030135e-05,4.1056,True
114861,mp-569017,PdI2,-0.2349565166666666,0.0162378950000001,0.8779999999999999,True
114864,mp-571235,ZrI4,-0.9276678553333332,0.0,2.0148,True
115382,mp-680118,CdI2,-0.5905589643333333,0.0015780342222222,2.3483,True
115491,mp-975592,Pr3I,-0.1501893799999996,0.3455593959375003,0.0,True
115594,mp-1186984,ScBr3,-1.6730796849999998,0.0,2.2422,False
115749,mp-27213,AuBr3,-0.1576146131249998,0.0,0.8069000000000001,True
115750,mp-27785,TiBr2,-1.0443605288888893,0.0593762759722213,0.0,False
117301,mp-22916,NaBr,-1.5737032622499998,0.0,4.0899,True
117534,mp-1095321,WBr5,-0.4728475700000002,0.0088864161805557,0.0,False
117836,mp-568838,Hg4I7,-0.2282975754545454,0.0769450922159091,0.0,True
117843,mp-570285,SiBr4,-0.837973933,0.0,4.1057,True
117844,mp-570552,CdI2,-0.5920438537179484,9.314483760691772e-05,2.4244000000000003,True
118225,mp-27194,SnI2,-0.4940154216666666,0.0,1.7218999999999998,True
118233,mp-28319,PtI2,-0.1659946058333332,0.0,1.2280000000000002,True
118288,mp-574189,PbI2,-0.6720506125000002,0.0033050508333332,2.4069000000000003,False
118473,mp-866003,ErI3,-1.34629650625,0.0,2.0386,True
118486,mp-979268,Tl3Br,-0.2984634625,0.1443152899999997,0.0,True
118528,mp-1064979,NaI,-1.14650050475,0.1181911074999999,4.0274,False
118653,mp-1105984,TeI7,0.0396298612499999,0.11747886,0.0,False
118815,mp-29498,WBr2,-0.4947117094444443,0.0,2.4659,True
118858,mp-571635,CdI2,-0.5916171411111111,0.0005198574444442,2.457,True
118946,mp-862329,ScI2,-1.0110856649999995,0.1145881143333342,0.0,False
118973,mp-974371,Rh3Br,0.670865974999999,0.82067753875,0.0,True
121600,mp-867231,TbI3,-1.3827369149999995,0.0,2.0937,True
121602,mp-867247,TbBr3,-1.8607668237500008,0.0,2.857,True
121619,mp-867355,TeBr2,-0.1868419666666664,0.1401995998809524,0.6528999999999999,True
121834,mp-867893,SmI3,-1.399012248125,0.0,2.0145,True